<?xml version="1.0" encoding="UTF-8"?>

<!-- generated on 2025-05-28 23:52:36 by Eclipse SUMO GUI Version 1.23.1
<sumoConfiguration xmlns:xsi="http://www.w3.org/2001/XMLSchema-instance" xsi:noNamespaceSchemaLocation="http://sumo.dlr.de/xsd/sumoConfiguration.xsd">

    <input>
        <net-file value="sumo/light.net.xml"/>
        <route-files value="sumo/light.rou.xml"/>
    </input>

    <output>
        <tripinfo-output value="sumo/tripinfo.xml"/>
    </output>

    <time>
        <begin value="0"/>
        <end value="2000"/>
        <step-length value="0.1"/>
    </time>

    <traci_server>
        <remote-port value="63684"/>
    </traci_server>

</sumoConfiguration>
-->

<tripinfos xmlns:xsi="http://www.w3.org/2001/XMLSchema-instance" xsi:noNamespaceSchemaLocation="http://sumo.dlr.de/xsd/tripinfo_file.xsd">
    <tripinfo id="0" depart="0.00" departLane="c_s_0" departPos="5.10" departSpeed="0.00" departDelay="0.00" arrival="9.30" arrivalLane="c_n_0" arrivalPos="26.40" arrivalSpeed="14.62" duration="9.30" routeLength="84.90" waitingTime="0.00" waitingCount="0" stopTime="0.00" timeLoss="3.53" rerouteNo="0" devices="tripinfo_0" vType="DEFAULT_VEHTYPE" speedFactor="1.06" vaporized=""/>
    <tripinfo id="2" depart="2.00" departLane="-c_n_0" departPos="5.10" departSpeed="0.00" departDelay="0.00" arrival="11.80" arrivalLane="-c_s_0" arrivalPos="36.40" arrivalSpeed="12.94" duration="9.80" routeLength="84.90" waitingTime="0.00" waitingCount="0" stopTime="0.00" timeLoss="3.24" rerouteNo="0" devices="tripinfo_2" vType="DEFAULT_VEHTYPE" speedFactor="0.94" vaporized=""/>
    <tripinfo id="5" depart="5.00" departLane="c_s_0" departPos="5.10" departSpeed="0.00" departDelay="0.00" arrival="14.30" arrivalLane="c_n_0" arrivalPos="26.40" arrivalSpeed="14.95" duration="9.30" routeLength="84.90" waitingTime="0.00" waitingCount="0" stopTime="0.00" timeLoss="3.58" rerouteNo="0" devices="tripinfo_5" vType="DEFAULT_VEHTYPE" speedFactor="1.08" vaporized=""/>
    <tripinfo id="6" depart="7.60" departLane="c_s_0" departPos="5.10" departSpeed="0.00" departDelay="1.60" arrival="16.10" arrivalLane="c_e_0" arrivalPos="11.40" arrivalSpeed="9.39" duration="8.50" routeLength="51.73" waitingTime="0.00" waitingCount="0" stopTime="0.00" timeLoss="4.14" rerouteNo="0" devices="tripinfo_6" vType="DEFAULT_VEHTYPE" speedFactor="1.03" vaporized=""/>
    <tripinfo id="4" depart="4.60" departLane="-c_n_0" departPos="5.10" departSpeed="0.00" departDelay="0.60" arrival="17.10" arrivalLane="c_e_2" arrivalPos="11.40" arrivalSpeed="10.58" duration="12.50" routeLength="57.21" waitingTime="1.10" waitingCount="1" stopTime="0.00" timeLoss="7.84" rerouteNo="0" devices="tripinfo_4" vType="DEFAULT_VEHTYPE" speedFactor="1.01" vaporized=""/>
    <tripinfo id="10" depart="10.00" departLane="-c_n_0" departPos="5.10" departSpeed="0.00" departDelay="0.00" arrival="17.40" arrivalLane="-w_c_0" arrivalPos="11.40" arrivalSpeed="9.45" duration="7.40" routeLength="41.73" waitingTime="0.00" waitingCount="0" stopTime="0.00" timeLoss="3.81" rerouteNo="0" devices="tripinfo_10" vType="DEFAULT_VEHTYPE" speedFactor="1.05" vaporized=""/>
    <tripinfo id="14" depart="14.00" departLane="c_s_0" departPos="5.10" departSpeed="0.00" departDelay="0.00" arrival="22.20" arrivalLane="c_e_0" arrivalPos="11.40" arrivalSpeed="9.63" duration="8.20" routeLength="51.73" waitingTime="0.00" waitingCount="0" stopTime="0.00" timeLoss="4.10" rerouteNo="0" devices="tripinfo_14" vType="DEFAULT_VEHTYPE" speedFactor="1.09" vaporized=""/>
    <tripinfo id="11" depart="12.70" departLane="-c_n_0" departPos="5.10" departSpeed="0.00" departDelay="1.70" arrival="22.50" arrivalLane="-c_s_0" arrivalPos="36.40" arrivalSpeed="12.26" duration="9.80" routeLength="84.90" waitingTime="0.00" waitingCount="0" stopTime="0.00" timeLoss="2.89" rerouteNo="0" devices="tripinfo_11" vType="DEFAULT_VEHTYPE" speedFactor="0.89" vaporized=""/>
    <tripinfo id="15" depart="15.30" departLane="-c_n_0" departPos="5.10" departSpeed="0.00" departDelay="0.30" arrival="24.80" arrivalLane="-c_s_0" arrivalPos="36.40" arrivalSpeed="14.17" duration="9.50" routeLength="84.90" waitingTime="0.00" waitingCount="0" stopTime="0.00" timeLoss="3.46" rerouteNo="0" devices="tripinfo_15" vType="DEFAULT_VEHTYPE" speedFactor="1.03" vaporized=""/>
    <tripinfo id="16" depart="16.60" departLane="c_s_0" departPos="5.10" departSpeed="0.00" departDelay="0.60" arrival="26.00" arrivalLane="c_n_0" arrivalPos="26.40" arrivalSpeed="14.50" duration="9.40" routeLength="84.90" waitingTime="0.00" waitingCount="0" stopTime="0.00" timeLoss="3.54" rerouteNo="0" devices="tripinfo_16" vType="DEFAULT_VEHTYPE" speedFactor="1.05" vaporized=""/>
    <tripinfo id="19" depart="19.00" departLane="-c_n_0" departPos="5.10" departSpeed="0.00" departDelay="0.00" arrival="28.50" arrivalLane="-c_s_0" arrivalPos="36.40" arrivalSpeed="13.70" duration="9.50" routeLength="84.90" waitingTime="0.00" waitingCount="0" stopTime="0.00" timeLoss="3.28" rerouteNo="0" devices="tripinfo_19" vType="DEFAULT_VEHTYPE" speedFactor="0.99" vaporized=""/>
    <tripinfo id="17" depart="19.20" departLane="c_s_0" departPos="5.10" departSpeed="0.00" departDelay="2.20" arrival="28.60" arrivalLane="c_n_0" arrivalPos="26.40" arrivalSpeed="15.57" duration="9.40" routeLength="84.90" waitingTime="0.00" waitingCount="0" stopTime="0.00" timeLoss="3.91" rerouteNo="0" devices="tripinfo_17" vType="DEFAULT_VEHTYPE" speedFactor="1.12" vaporized=""/>
    <tripinfo id="21" depart="22.00" departLane="c_s_0" departPos="5.10" departSpeed="0.00" departDelay="1.00" arrival="30.90" arrivalLane="c_e_0" arrivalPos="11.40" arrivalSpeed="8.61" duration="8.90" routeLength="51.73" waitingTime="0.00" waitingCount="0" stopTime="0.00" timeLoss="3.84" rerouteNo="0" devices="tripinfo_21" vType="DEFAULT_VEHTYPE" speedFactor="0.88" vaporized=""/>
    <tripinfo id="26" depart="26.00" departLane="-c_n_0" departPos="5.10" departSpeed="0.00" departDelay="0.00" arrival="35.40" arrivalLane="-c_s_0" arrivalPos="36.40" arrivalSpeed="14.10" duration="9.40" routeLength="84.90" waitingTime="0.00" waitingCount="0" stopTime="0.00" timeLoss="3.31" rerouteNo="0" devices="tripinfo_26" vType="DEFAULT_VEHTYPE" speedFactor="1.02" vaporized=""/>
    <tripinfo id="20" depart="21.90" departLane="c_s_0" departPos="5.10" departSpeed="0.00" departDelay="1.90" arrival="37.40" arrivalLane="-w_c_2" arrivalPos="11.40" arrivalSpeed="10.46" duration="15.50" routeLength="67.21" waitingTime="3.00" waitingCount="1" stopTime="0.00" timeLoss="9.57" rerouteNo="0" devices="tripinfo_20" vType="DEFAULT_VEHTYPE" speedFactor="0.93" vaporized=""/>
    <tripinfo id="7" depart="7.00" departLane="w_c_0" departPos="5.10" departSpeed="0.00" departDelay="0.00" arrival="41.90" arrivalLane="-c_s_0" arrivalPos="36.40" arrivalSpeed="11.52" duration="34.90" routeLength="51.73" waitingTime="25.30" waitingCount="1" stopTime="0.00" timeLoss="29.52" rerouteNo="0" devices="tripinfo_7" vType="DEFAULT_VEHTYPE" speedFactor="0.83" vaporized=""/>
    <tripinfo id="36" depart="36.00" departLane="-c_e_0" departPos="5.10" departSpeed="0.00" departDelay="0.00" arrival="42.60" arrivalLane="-w_c_0" arrivalPos="11.40" arrivalSpeed="12.65" duration="6.60" routeLength="44.90" waitingTime="0.00" waitingCount="0" stopTime="0.00" timeLoss="2.99" rerouteNo="0" devices="tripinfo_36" vType="DEFAULT_VEHTYPE" speedFactor="0.92" vaporized=""/>
    <tripinfo id="12" depart="12.00" departLane="-c_e_0" departPos="5.10" departSpeed="0.00" departDelay="0.00" arrival="42.70" arrivalLane="-c_s_2" arrivalPos="36.40" arrivalSpeed="12.94" duration="30.70" routeLength="67.21" waitingTime="20.30" waitingCount="1" stopTime="0.00" timeLoss="24.85" rerouteNo="0" devices="tripinfo_12" vType="DEFAULT_VEHTYPE" speedFactor="0.94" vaporized=""/>
    <tripinfo id="22" depart="36.30" departLane="w_c_0" departPos="5.10" departSpeed="0.00" departDelay="14.30" arrival="43.90" arrivalLane="-c_s_0" arrivalPos="36.40" arrivalSpeed="12.99" duration="7.60" routeLength="51.73" waitingTime="0.00" waitingCount="0" stopTime="0.00" timeLoss="2.89" rerouteNo="0" devices="tripinfo_22" vType="DEFAULT_VEHTYPE" speedFactor="0.94" vaporized=""/>
    <tripinfo id="13" depart="13.00" departLane="-c_e_0" departPos="5.10" departSpeed="0.00" departDelay="0.00" arrival="44.90" arrivalLane="-c_s_2" arrivalPos="36.40" arrivalSpeed="11.80" duration="31.90" routeLength="67.21" waitingTime="22.70" waitingCount="1" stopTime="0.00" timeLoss="25.52" rerouteNo="0" devices="tripinfo_13" vType="DEFAULT_VEHTYPE" speedFactor="0.86" vaporized=""/>
    <tripinfo id="23" depart="38.90" departLane="w_c_0" departPos="5.10" departSpeed="0.00" departDelay="15.90" arrival="46.70" arrivalLane="-c_s_0" arrivalPos="36.40" arrivalSpeed="12.90" duration="7.80" routeLength="51.73" waitingTime="0.00" waitingCount="0" stopTime="0.00" timeLoss="2.97" rerouteNo="0" devices="tripinfo_23" vType="DEFAULT_VEHTYPE" speedFactor="0.94" vaporized=""/>
    <tripinfo id="25" depart="41.50" departLane="w_c_0" departPos="5.10" departSpeed="0.00" departDelay="16.50" arrival="48.80" arrivalLane="-c_s_0" arrivalPos="36.40" arrivalSpeed="14.24" duration="7.30" routeLength="51.73" waitingTime="0.00" waitingCount="0" stopTime="0.00" timeLoss="3.38" rerouteNo="0" devices="tripinfo_25" vType="DEFAULT_VEHTYPE" speedFactor="1.16" vaporized=""/>
    <tripinfo id="30" depart="44.20" departLane="w_c_0" departPos="5.10" departSpeed="0.00" departDelay="14.20" arrival="50.90" arrivalLane="c_e_0" arrivalPos="11.40" arrivalSpeed="13.00" duration="6.70" routeLength="44.90" waitingTime="0.00" waitingCount="0" stopTime="0.00" timeLoss="3.32" rerouteNo="0" devices="tripinfo_30" vType="DEFAULT_VEHTYPE" speedFactor="0.97" vaporized=""/>
    <tripinfo id="44" depart="46.90" departLane="w_c_0" departPos="5.10" departSpeed="0.00" departDelay="2.90" arrival="53.60" arrivalLane="c_e_0" arrivalPos="11.40" arrivalSpeed="13.14" duration="6.70" routeLength="44.90" waitingTime="0.00" waitingCount="0" stopTime="0.00" timeLoss="3.46" rerouteNo="0" devices="tripinfo_44" vType="DEFAULT_VEHTYPE" speedFactor="1.01" vaporized=""/>
    <tripinfo id="46" depart="49.60" departLane="w_c_0" departPos="5.10" departSpeed="0.00" departDelay="3.60" arrival="56.20" arrivalLane="c_e_0" arrivalPos="11.40" arrivalSpeed="13.12" duration="6.60" routeLength="44.90" waitingTime="0.00" waitingCount="0" stopTime="0.00" timeLoss="3.85" rerouteNo="0" devices="tripinfo_46" vType="DEFAULT_VEHTYPE" speedFactor="1.17" vaporized=""/>
    <tripinfo id="49" depart="49.00" departLane="-c_e_0" departPos="5.10" departSpeed="0.00" departDelay="0.00" arrival="62.00" arrivalLane="-c_s_2" arrivalPos="36.40" arrivalSpeed="13.70" duration="13.00" routeLength="67.21" waitingTime="1.30" waitingCount="1" stopTime="0.00" timeLoss="7.49" rerouteNo="0" devices="tripinfo_49" vType="DEFAULT_VEHTYPE" speedFactor="0.99" vaporized=""/>
    <tripinfo id="28" depart="28.00" departLane="c_s_0" departPos="5.10" departSpeed="0.00" departDelay="0.00" arrival="74.40" arrivalLane="c_e_0" arrivalPos="11.40" arrivalSpeed="9.36" duration="46.40" routeLength="51.73" waitingTime="35.40" waitingCount="1" stopTime="0.00" timeLoss="41.96" rerouteNo="0" devices="tripinfo_28" vType="DEFAULT_VEHTYPE" speedFactor="1.01" vaporized=""/>
    <tripinfo id="43" depart="43.00" departLane="-c_n_0" departPos="5.10" departSpeed="0.00" departDelay="0.00" arrival="75.90" arrivalLane="-w_c_0" arrivalPos="11.40" arrivalSpeed="9.93" duration="32.90" routeLength="41.73" waitingTime="20.30" waitingCount="1" stopTime="0.00" timeLoss="29.67" rerouteNo="0" devices="tripinfo_43" vType="DEFAULT_VEHTYPE" speedFactor="1.15" vaporized=""/>
    <tripinfo id="34" depart="34.00" departLane="c_s_0" departPos="5.10" departSpeed="0.00" departDelay="0.00" arrival="77.40" arrivalLane="c_n_0" arrivalPos="26.40" arrivalSpeed="12.05" duration="43.40" routeLength="84.90" waitingTime="29.40" waitingCount="1" stopTime="0.00" timeLoss="36.39" rerouteNo="0" devices="tripinfo_34" vType="DEFAULT_VEHTYPE" speedFactor="0.87" vaporized=""/>
    <tripinfo id="38" depart="38.00" departLane="-c_n_0" departPos="5.10" departSpeed="0.00" departDelay="0.00" arrival="77.70" arrivalLane="-c_s_0" arrivalPos="36.40" arrivalSpeed="15.69" duration="39.70" routeLength="84.90" waitingTime="26.60" waitingCount="1" stopTime="0.00" timeLoss="34.27" rerouteNo="0" devices="tripinfo_38" vType="DEFAULT_VEHTYPE" speedFactor="1.13" vaporized=""/>
    <tripinfo id="40" depart="40.70" departLane="-c_n_0" departPos="5.10" departSpeed="0.00" departDelay="0.70" arrival="77.90" arrivalLane="-c_s_1" arrivalPos="36.40" arrivalSpeed="15.81" duration="37.20" routeLength="84.90" waitingTime="24.00" waitingCount="1" stopTime="0.00" timeLoss="31.99" rerouteNo="0" devices="tripinfo_40" vType="DEFAULT_VEHTYPE" speedFactor="1.18" vaporized=""/>
    <tripinfo id="37" depart="37.00" departLane="c_s_0" departPos="5.10" departSpeed="0.00" departDelay="0.00" arrival="78.80" arrivalLane="c_n_0" arrivalPos="26.40" arrivalSpeed="13.16" duration="41.80" routeLength="84.90" waitingTime="24.60" waitingCount="1" stopTime="0.00" timeLoss="35.30" rerouteNo="0" devices="tripinfo_37" vType="DEFAULT_VEHTYPE" speedFactor="0.95" vaporized=""/>
    <tripinfo id="31" depart="31.00" departLane="c_s_0" departPos="5.10" departSpeed="0.00" departDelay="0.00" arrival="79.70" arrivalLane="-w_c_2" arrivalPos="11.40" arrivalSpeed="10.61" duration="48.70" routeLength="67.21" waitingTime="33.70" waitingCount="2" stopTime="0.00" timeLoss="42.58" rerouteNo="0" devices="tripinfo_31" vType="DEFAULT_VEHTYPE" speedFactor="0.89" vaporized=""/>
    <tripinfo id="39" depart="40.60" departLane="-c_n_0" departPos="5.10" departSpeed="0.00" departDelay="1.60" arrival="81.00" arrivalLane="c_e_2" arrivalPos="11.40" arrivalSpeed="10.39" duration="40.40" routeLength="57.21" waitingTime="26.70" waitingCount="2" stopTime="0.00" timeLoss="35.35" rerouteNo="0" devices="tripinfo_39" vType="DEFAULT_VEHTYPE" speedFactor="0.93" vaporized=""/>
    <tripinfo id="33" depart="33.00" departLane="c_s_0" departPos="5.10" departSpeed="0.00" departDelay="0.00" arrival="81.30" arrivalLane="-w_c_2" arrivalPos="11.40" arrivalSpeed="10.82" duration="48.30" routeLength="67.21" waitingTime="28.40" waitingCount="1" stopTime="0.00" timeLoss="41.65" rerouteNo="0" devices="tripinfo_33" vType="DEFAULT_VEHTYPE" speedFactor="0.83" vaporized=""/>
</tripinfos>
