<?xml version="1.0" encoding="UTF-8"?>

<!-- generated on 2025-05-30 18:33:34 by Eclipse SUMO GUI Version 1.23.1
<sumoConfiguration xmlns:xsi="http://www.w3.org/2001/XMLSchema-instance" xsi:noNamespaceSchemaLocation="http://sumo.dlr.de/xsd/sumoConfiguration.xsd">

    <input>
        <net-file value="sumo-multi/light.net.xml"/>
        <route-files value="sumo-multi/light.rou.xml"/>
    </input>

    <output>
        <tripinfo-output value="sumo-multi/tripinfo.xml"/>
    </output>

    <time>
        <begin value="0"/>
        <end value="2000"/>
        <step-length value="0.1"/>
    </time>

    <traci_server>
        <remote-port value="54305"/>
    </traci_server>

</sumoConfiguration>
-->

<tripinfos xmlns:xsi="http://www.w3.org/2001/XMLSchema-instance" xsi:noNamespaceSchemaLocation="http://sumo.dlr.de/xsd/tripinfo_file.xsd">
    <tripinfo id="0" depart="0.00" departLane="c_s_0" departPos="5.10" departSpeed="0.00" departDelay="0.00" arrival="9.40" arrivalLane="c_n_2" arrivalPos="26.40" arrivalSpeed="14.69" duration="9.40" routeLength="84.90" waitingTime="0.00" waitingCount="0" stopTime="0.00" timeLoss="3.57" rerouteNo="0" devices="tripinfo_0" vType="DEFAULT_VEHTYPE" speedFactor="1.06" vaporized=""/>
    <tripinfo id="4" depart="4.60" departLane="-c_n_0" departPos="5.10" departSpeed="0.00" departDelay="0.60" arrival="12.40" arrivalLane="c_e_2" arrivalPos="11.40" arrivalSpeed="12.32" duration="7.80" routeLength="57.21" waitingTime="0.00" waitingCount="0" stopTime="0.00" timeLoss="3.14" rerouteNo="0" devices="tripinfo_4" vType="DEFAULT_VEHTYPE" speedFactor="1.01" vaporized=""/>
    <tripinfo id="7" depart="7.00" departLane="w_c_0" departPos="5.10" departSpeed="0.00" departDelay="0.00" arrival="15.00" arrivalLane="-c_s_0" arrivalPos="36.40" arrivalSpeed="11.42" duration="8.00" routeLength="51.73" waitingTime="0.00" waitingCount="0" stopTime="0.00" timeLoss="2.62" rerouteNo="0" devices="tripinfo_7" vType="DEFAULT_VEHTYPE" speedFactor="0.83" vaporized=""/>
    <tripinfo id="5" depart="5.00" departLane="c_s_0" departPos="5.10" departSpeed="0.00" departDelay="0.00" arrival="15.20" arrivalLane="c_n_2" arrivalPos="26.40" arrivalSpeed="14.91" duration="10.20" routeLength="84.90" waitingTime="0.00" waitingCount="0" stopTime="0.00" timeLoss="4.52" rerouteNo="0" devices="tripinfo_5" vType="DEFAULT_VEHTYPE" speedFactor="1.08" vaporized=""/>
    <tripinfo id="6" depart="6.00" departLane="c_s_0" departPos="5.10" departSpeed="0.00" departDelay="0.00" arrival="15.50" arrivalLane="c_e_0" arrivalPos="11.40" arrivalSpeed="9.26" duration="9.50" routeLength="51.73" waitingTime="0.00" waitingCount="0" stopTime="0.00" timeLoss="5.12" rerouteNo="0" devices="tripinfo_6" vType="DEFAULT_VEHTYPE" speedFactor="1.03" vaporized=""/>
    <tripinfo id="10" depart="10.00" departLane="-c_n_0" departPos="5.10" departSpeed="0.00" departDelay="0.00" arrival="17.40" arrivalLane="-w_c_0" arrivalPos="11.40" arrivalSpeed="9.45" duration="7.40" routeLength="41.73" waitingTime="0.00" waitingCount="0" stopTime="0.00" timeLoss="3.80" rerouteNo="0" devices="tripinfo_10" vType="DEFAULT_VEHTYPE" speedFactor="1.05" vaporized=""/>
    <tripinfo id="2" depart="2.00" departLane="-c_n_0" departPos="5.10" departSpeed="0.00" departDelay="0.00" arrival="20.10" arrivalLane="-c_s_1" arrivalPos="36.40" arrivalSpeed="13.01" duration="18.10" routeLength="84.90" waitingTime="4.60" waitingCount="1" stopTime="0.00" timeLoss="11.51" rerouteNo="0" devices="tripinfo_2" vType="DEFAULT_VEHTYPE" speedFactor="0.94" vaporized=""/>
    <tripinfo id="12" depart="12.00" departLane="-c_e_0" departPos="5.10" departSpeed="0.00" departDelay="0.00" arrival="20.30" arrivalLane="-c_s_2" arrivalPos="36.40" arrivalSpeed="12.91" duration="8.30" routeLength="67.21" waitingTime="0.00" waitingCount="0" stopTime="0.00" timeLoss="2.53" rerouteNo="0" devices="tripinfo_12" vType="DEFAULT_VEHTYPE" speedFactor="0.94" vaporized=""/>
    <tripinfo id="14" depart="14.00" departLane="c_s_0" departPos="5.10" departSpeed="0.00" departDelay="0.00" arrival="22.20" arrivalLane="c_e_0" arrivalPos="11.40" arrivalSpeed="9.59" duration="8.20" routeLength="51.73" waitingTime="0.00" waitingCount="0" stopTime="0.00" timeLoss="4.10" rerouteNo="0" devices="tripinfo_14" vType="DEFAULT_VEHTYPE" speedFactor="1.09" vaporized=""/>
    <tripinfo id="13" depart="13.00" departLane="-c_e_0" departPos="5.10" departSpeed="0.00" departDelay="0.00" arrival="23.00" arrivalLane="-c_s_2" arrivalPos="36.40" arrivalSpeed="11.80" duration="10.00" routeLength="67.21" waitingTime="0.70" waitingCount="1" stopTime="0.00" timeLoss="3.60" rerouteNo="0" devices="tripinfo_13" vType="DEFAULT_VEHTYPE" speedFactor="0.86" vaporized=""/>
    <tripinfo id="11" depart="12.60" departLane="-c_n_0" departPos="5.10" departSpeed="0.00" departDelay="1.60" arrival="23.40" arrivalLane="-c_s_0" arrivalPos="36.40" arrivalSpeed="12.21" duration="10.80" routeLength="84.90" waitingTime="0.00" waitingCount="0" stopTime="0.00" timeLoss="3.82" rerouteNo="0" devices="tripinfo_11" vType="DEFAULT_VEHTYPE" speedFactor="0.89" vaporized=""/>
    <tripinfo id="15" depart="15.30" departLane="-c_n_0" departPos="5.10" departSpeed="0.00" departDelay="0.30" arrival="24.70" arrivalLane="-c_s_1" arrivalPos="36.40" arrivalSpeed="14.17" duration="9.40" routeLength="84.90" waitingTime="0.00" waitingCount="0" stopTime="0.00" timeLoss="3.38" rerouteNo="0" devices="tripinfo_15" vType="DEFAULT_VEHTYPE" speedFactor="1.03" vaporized=""/>
    <tripinfo id="16" depart="16.60" departLane="c_s_0" departPos="5.10" departSpeed="0.00" departDelay="0.60" arrival="25.90" arrivalLane="c_n_0" arrivalPos="26.40" arrivalSpeed="14.44" duration="9.30" routeLength="84.90" waitingTime="0.00" waitingCount="0" stopTime="0.00" timeLoss="3.47" rerouteNo="0" devices="tripinfo_16" vType="DEFAULT_VEHTYPE" speedFactor="1.05" vaporized=""/>
    <tripinfo id="17" depart="19.20" departLane="c_s_0" departPos="5.10" departSpeed="0.00" departDelay="2.20" arrival="28.50" arrivalLane="c_n_0" arrivalPos="26.40" arrivalSpeed="15.50" duration="9.30" routeLength="84.90" waitingTime="0.00" waitingCount="0" stopTime="0.00" timeLoss="3.84" rerouteNo="0" devices="tripinfo_17" vType="DEFAULT_VEHTYPE" speedFactor="1.12" vaporized=""/>
    <tripinfo id="19" depart="19.00" departLane="-c_n_0" departPos="5.10" departSpeed="0.00" departDelay="0.00" arrival="28.50" arrivalLane="-c_s_0" arrivalPos="36.40" arrivalSpeed="13.73" duration="9.50" routeLength="84.90" waitingTime="0.00" waitingCount="0" stopTime="0.00" timeLoss="3.29" rerouteNo="0" devices="tripinfo_19" vType="DEFAULT_VEHTYPE" speedFactor="0.99" vaporized=""/>
    <tripinfo id="21" depart="21.90" departLane="c_s_0" departPos="5.10" departSpeed="0.00" departDelay="0.90" arrival="30.80" arrivalLane="c_e_0" arrivalPos="11.40" arrivalSpeed="8.62" duration="8.90" routeLength="51.73" waitingTime="0.00" waitingCount="0" stopTime="0.00" timeLoss="3.84" rerouteNo="0" devices="tripinfo_21" vType="DEFAULT_VEHTYPE" speedFactor="0.88" vaporized=""/>
    <tripinfo id="20" depart="21.80" departLane="c_s_0" departPos="5.10" departSpeed="0.00" departDelay="1.80" arrival="31.10" arrivalLane="-w_c_2" arrivalPos="11.40" arrivalSpeed="11.62" duration="9.30" routeLength="67.21" waitingTime="0.00" waitingCount="0" stopTime="0.00" timeLoss="3.35" rerouteNo="0" devices="tripinfo_20" vType="DEFAULT_VEHTYPE" speedFactor="0.93" vaporized=""/>
    <tripinfo id="26" depart="26.00" departLane="-c_n_0" departPos="5.10" departSpeed="0.00" departDelay="0.00" arrival="35.40" arrivalLane="-c_s_0" arrivalPos="36.40" arrivalSpeed="14.04" duration="9.40" routeLength="84.90" waitingTime="0.00" waitingCount="0" stopTime="0.00" timeLoss="3.38" rerouteNo="0" devices="tripinfo_26" vType="DEFAULT_VEHTYPE" speedFactor="1.02" vaporized=""/>
    <tripinfo id="28" depart="28.00" departLane="c_s_0" departPos="5.10" departSpeed="0.00" departDelay="0.00" arrival="36.50" arrivalLane="c_e_0" arrivalPos="11.40" arrivalSpeed="9.20" duration="8.50" routeLength="51.73" waitingTime="0.00" waitingCount="0" stopTime="0.00" timeLoss="4.09" rerouteNo="0" devices="tripinfo_28" vType="DEFAULT_VEHTYPE" speedFactor="1.01" vaporized=""/>
    <tripinfo id="31" depart="31.00" departLane="c_s_0" departPos="5.10" departSpeed="0.00" departDelay="0.00" arrival="40.20" arrivalLane="-w_c_2" arrivalPos="11.40" arrivalSpeed="11.39" duration="9.20" routeLength="67.21" waitingTime="0.00" waitingCount="0" stopTime="0.00" timeLoss="3.04" rerouteNo="0" devices="tripinfo_31" vType="DEFAULT_VEHTYPE" speedFactor="0.89" vaporized=""/>
    <tripinfo id="36" depart="36.00" departLane="-c_e_0" departPos="5.10" departSpeed="0.00" departDelay="0.00" arrival="42.60" arrivalLane="-w_c_0" arrivalPos="11.40" arrivalSpeed="12.65" duration="6.60" routeLength="44.90" waitingTime="0.00" waitingCount="0" stopTime="0.00" timeLoss="2.99" rerouteNo="0" devices="tripinfo_36" vType="DEFAULT_VEHTYPE" speedFactor="0.92" vaporized=""/>
    <tripinfo id="33" depart="33.00" departLane="c_s_0" departPos="5.10" departSpeed="0.00" departDelay="0.00" arrival="42.70" arrivalLane="-w_c_2" arrivalPos="11.40" arrivalSpeed="11.02" duration="9.70" routeLength="67.21" waitingTime="0.00" waitingCount="0" stopTime="0.00" timeLoss="3.08" rerouteNo="0" devices="tripinfo_33" vType="DEFAULT_VEHTYPE" speedFactor="0.83" vaporized=""/>
    <tripinfo id="34" depart="34.00" departLane="c_s_0" departPos="5.10" departSpeed="0.00" departDelay="0.00" arrival="44.20" arrivalLane="c_n_0" arrivalPos="26.40" arrivalSpeed="12.06" duration="10.20" routeLength="84.90" waitingTime="0.00" waitingCount="0" stopTime="0.00" timeLoss="3.16" rerouteNo="0" devices="tripinfo_34" vType="DEFAULT_VEHTYPE" speedFactor="0.87" vaporized=""/>
    <tripinfo id="37" depart="37.00" departLane="c_s_0" departPos="5.10" departSpeed="0.00" departDelay="0.00" arrival="46.70" arrivalLane="c_n_0" arrivalPos="26.40" arrivalSpeed="13.06" duration="9.70" routeLength="84.90" waitingTime="0.00" waitingCount="0" stopTime="0.00" timeLoss="3.20" rerouteNo="0" devices="tripinfo_37" vType="DEFAULT_VEHTYPE" speedFactor="0.95" vaporized=""/>
    <tripinfo id="38" depart="38.00" departLane="-c_n_0" departPos="5.10" departSpeed="0.00" departDelay="0.00" arrival="47.40" arrivalLane="-c_s_0" arrivalPos="36.40" arrivalSpeed="15.66" duration="9.40" routeLength="84.90" waitingTime="0.00" waitingCount="0" stopTime="0.00" timeLoss="3.95" rerouteNo="0" devices="tripinfo_38" vType="DEFAULT_VEHTYPE" speedFactor="1.13" vaporized=""/>
    <tripinfo id="39" depart="40.70" departLane="-c_n_0" departPos="5.10" departSpeed="0.00" departDelay="1.70" arrival="49.20" arrivalLane="c_e_2" arrivalPos="11.40" arrivalSpeed="11.78" duration="8.50" routeLength="57.21" waitingTime="0.00" waitingCount="0" stopTime="0.00" timeLoss="3.39" rerouteNo="0" devices="tripinfo_39" vType="DEFAULT_VEHTYPE" speedFactor="0.93" vaporized=""/>
    <tripinfo id="40" depart="40.80" departLane="-c_n_0" departPos="5.10" departSpeed="0.00" departDelay="0.80" arrival="50.00" arrivalLane="-c_s_0" arrivalPos="36.40" arrivalSpeed="16.28" duration="9.20" routeLength="84.90" waitingTime="0.00" waitingCount="0" stopTime="0.00" timeLoss="3.93" rerouteNo="0" devices="tripinfo_40" vType="DEFAULT_VEHTYPE" speedFactor="1.18" vaporized=""/>
    <tripinfo id="43" depart="43.50" departLane="-c_n_0" departPos="5.10" departSpeed="0.00" departDelay="0.50" arrival="50.60" arrivalLane="-w_c_0" arrivalPos="11.40" arrivalSpeed="9.92" duration="7.10" routeLength="41.73" waitingTime="0.00" waitingCount="0" stopTime="0.00" timeLoss="3.85" rerouteNo="0" devices="tripinfo_43" vType="DEFAULT_VEHTYPE" speedFactor="1.15" vaporized=""/>
    <tripinfo id="22" depart="22.00" departLane="w_c_0" departPos="5.10" departSpeed="0.00" departDelay="0.00" arrival="55.70" arrivalLane="-c_s_0" arrivalPos="36.40" arrivalSpeed="13.06" duration="33.70" routeLength="51.73" waitingTime="24.30" waitingCount="1" stopTime="0.00" timeLoss="28.97" rerouteNo="0" devices="tripinfo_22" vType="DEFAULT_VEHTYPE" speedFactor="0.94" vaporized=""/>
    <tripinfo id="49" depart="49.00" departLane="-c_e_0" departPos="5.10" departSpeed="0.00" departDelay="0.00" arrival="57.40" arrivalLane="-c_s_2" arrivalPos="36.40" arrivalSpeed="13.70" duration="8.40" routeLength="67.21" waitingTime="0.00" waitingCount="0" stopTime="0.00" timeLoss="2.84" rerouteNo="0" devices="tripinfo_49" vType="DEFAULT_VEHTYPE" speedFactor="0.99" vaporized=""/>
    <tripinfo id="23" depart="50.30" departLane="w_c_0" departPos="5.10" departSpeed="0.00" departDelay="27.30" arrival="58.00" arrivalLane="-c_s_0" arrivalPos="36.40" arrivalSpeed="12.95" duration="7.70" routeLength="51.73" waitingTime="0.00" waitingCount="0" stopTime="0.00" timeLoss="2.94" rerouteNo="0" devices="tripinfo_23" vType="DEFAULT_VEHTYPE" speedFactor="0.94" vaporized=""/>
    <tripinfo id="25" depart="52.90" departLane="w_c_0" departPos="5.10" departSpeed="0.00" departDelay="27.90" arrival="60.10" arrivalLane="-c_s_0" arrivalPos="36.40" arrivalSpeed="13.64" duration="7.20" routeLength="51.73" waitingTime="0.00" waitingCount="0" stopTime="0.00" timeLoss="3.37" rerouteNo="0" devices="tripinfo_25" vType="DEFAULT_VEHTYPE" speedFactor="1.16" vaporized=""/>
    <tripinfo id="30" depart="55.50" departLane="w_c_0" departPos="5.10" departSpeed="0.00" departDelay="25.50" arrival="62.00" arrivalLane="c_e_2" arrivalPos="11.40" arrivalSpeed="13.54" duration="6.50" routeLength="44.90" waitingTime="0.00" waitingCount="0" stopTime="0.00" timeLoss="3.10" rerouteNo="0" devices="tripinfo_30" vType="DEFAULT_VEHTYPE" speedFactor="0.97" vaporized=""/>
    <tripinfo id="44" depart="55.60" departLane="w_c_0" departPos="5.10" departSpeed="0.00" departDelay="11.60" arrival="64.00" arrivalLane="c_e_2" arrivalPos="11.40" arrivalSpeed="13.39" duration="8.40" routeLength="44.90" waitingTime="1.60" waitingCount="1" stopTime="0.00" timeLoss="5.16" rerouteNo="0" devices="tripinfo_44" vType="DEFAULT_VEHTYPE" speedFactor="1.01" vaporized=""/>
    <tripinfo id="46" depart="55.70" departLane="w_c_0" departPos="5.10" departSpeed="0.00" departDelay="9.70" arrival="66.50" arrivalLane="c_e_2" arrivalPos="11.40" arrivalSpeed="12.89" duration="10.80" routeLength="44.90" waitingTime="3.80" waitingCount="2" stopTime="0.00" timeLoss="8.01" rerouteNo="0" devices="tripinfo_46" vType="DEFAULT_VEHTYPE" speedFactor="1.17" vaporized=""/>
</tripinfos>
